####################################################################### 
# 
# This file contains crystal structure data downloaded from the 
# Cambridge Structural Database (CSD) hosted by the Cambridge 
# Crystallographic Data Centre (CCDC).
# 
# Full information about CCDC data access policies and citation 
# guidelines are available at http://www.ccdc.cam.ac.uk/access/V1 
# 
# Audit and citation data items may have been added by the CCDC. 
# Please retain this information to preserve the provenance of 
# this file and to allow appropriate attribution of the data. 
# 
#######################################################################

data_298K
_audit_block_doi                 10.5517/ccvplgk
_database_code_depnum_ccdc_archive 'CCDC 795319'
loop_
_citation_id
_citation_doi
_citation_year
1 10.1002/anie.201103265 2011
_audit_update_record             
;
2010-10-02 deposited with the CCDC.	2022-07-19 downloaded from the CCDC.
;
#TrackingRef 'T-298K.cif'


_audit_creation_method           SHELXL-97
_chemical_name_systematic        
;
?
;
_chemical_name_common            ?
_chemical_melting_point          ?
_chemical_formula_moiety         ?
_chemical_formula_sum            'C5 Co D11 N O6'
_chemical_formula_weight         251.14

loop_
_atom_type_symbol
_atom_type_description
_atom_type_scat_dispersion_real
_atom_type_scat_dispersion_imag
_atom_type_scat_source
C C 0.0033 0.0016 'International Tables Vol C Tables 4.2.6.8 and 6.1.1.4'
D D 0.0000 0.0000 'International Tables Vol C Tables 4.2.6.8 and 6.1.1.4'
N N 0.0061 0.0033 'International Tables Vol C Tables 4.2.6.8 and 6.1.1.4'
O O 0.0106 0.0060 'International Tables Vol C Tables 4.2.6.8 and 6.1.1.4'
Co Co 0.3494 0.9721 'International Tables Vol C Tables 4.2.6.8 and 6.1.1.4'

_symmetry_cell_setting           ?
_symmetry_space_group_name_H-M   ?

loop_
_symmetry_equiv_pos_as_xyz
'x, y, z'
'-y, x-y, z'
'-x+y, -x, z'
'y, x, -z+1/2'
'x-y, -y, -z+1/2'
'-x, -x+y, -z+1/2'
'x+2/3, y+1/3, z+1/3'
'-y+2/3, x-y+1/3, z+1/3'
'-x+y+2/3, -x+1/3, z+1/3'
'y+2/3, x+1/3, -z+5/6'
'x-y+2/3, -y+1/3, -z+5/6'
'-x+2/3, -x+y+1/3, -z+5/6'
'x+1/3, y+2/3, z+2/3'
'-y+1/3, x-y+2/3, z+2/3'
'-x+y+1/3, -x+2/3, z+2/3'
'y+1/3, x+2/3, -z+7/6'
'x-y+1/3, -y+2/3, -z+7/6'
'-x+1/3, -x+y+2/3, -z+7/6'
'-x, -y, -z'
'y, -x+y, -z'
'x-y, x, -z'
'-y, -x, z-1/2'
'-x+y, y, z-1/2'
'x, x-y, z-1/2'
'-x+2/3, -y+1/3, -z+1/3'
'y+2/3, -x+y+1/3, -z+1/3'
'x-y+2/3, x+1/3, -z+1/3'
'-y+2/3, -x+1/3, z-1/6'
'-x+y+2/3, y+1/3, z-1/6'
'x+2/3, x-y+1/3, z-1/6'
'-x+1/3, -y+2/3, -z+2/3'
'y+1/3, -x+y+2/3, -z+2/3'
'x-y+1/3, x+2/3, -z+2/3'
'-y+1/3, -x+2/3, z+1/6'
'-x+y+1/3, y+2/3, z+1/6'
'x+1/3, x-y+2/3, z+1/6'

_cell_length_a                   8.2122(12)
_cell_length_b                   8.2122(12)
_cell_length_c                   22.250(4)
_cell_angle_alpha                90.00
_cell_angle_beta                 90.00
_cell_angle_gamma                120.00
_cell_volume                     1299.5(4)
_cell_formula_units_Z            6
_cell_measurement_temperature    298(2)
_cell_measurement_reflns_used    ?
_cell_measurement_theta_min      ?
_cell_measurement_theta_max      ?

_exptl_crystal_description       ?
_exptl_crystal_colour            ?
_exptl_crystal_size_max          ?
_exptl_crystal_size_mid          ?
_exptl_crystal_size_min          ?
_exptl_crystal_density_meas      ?
_exptl_crystal_density_diffrn    1.926
_exptl_crystal_density_method    'not measured'
_exptl_crystal_F_000             738
_exptl_absorpt_coefficient_mu    1.980
_exptl_absorpt_correction_type   ?
_exptl_absorpt_correction_T_min  ?
_exptl_absorpt_correction_T_max  ?
_exptl_absorpt_process_details   ?

_exptl_special_details           
;
?
;

_diffrn_ambient_temperature      298(2)
_diffrn_radiation_wavelength     0.71073
_diffrn_radiation_type           MoK\a
_diffrn_radiation_source         'fine-focus sealed tube'
_diffrn_radiation_monochromator  graphite
_diffrn_measurement_device_type  ?
_diffrn_measurement_method       ?
_diffrn_detector_area_resol_mean ?
_diffrn_standards_number         ?
_diffrn_standards_interval_count ?
_diffrn_standards_interval_time  ?
_diffrn_standards_decay_%        ?
_diffrn_reflns_number            4007
_diffrn_reflns_av_R_equivalents  0.0578
_diffrn_reflns_av_sigmaI/netI    0.0291
_diffrn_reflns_limit_h_min       -10
_diffrn_reflns_limit_h_max       10
_diffrn_reflns_limit_k_min       -10
_diffrn_reflns_limit_k_max       10
_diffrn_reflns_limit_l_min       -28
_diffrn_reflns_limit_l_max       28
_diffrn_reflns_theta_min         5.50
_diffrn_reflns_theta_max         27.42
_reflns_number_total             328
_reflns_number_gt                299
_reflns_threshold_expression     >2sigma(I)

_computing_data_collection       ?
_computing_cell_refinement       ?
_computing_data_reduction        ?
_computing_structure_solution    'SHELXS-97 (Sheldrick, 1990)'
_computing_structure_refinement  'SHELXL-97 (Sheldrick, 1997)'
_computing_molecular_graphics    ?
_computing_publication_material  ?

_refine_special_details          
;
Refinement of F^2^ against ALL reflections. The weighted R-factor wR and
goodness of fit S are based on F^2^, conventional R-factors R are based
on F, with F set to zero for negative F^2^. The threshold expression of
F^2^ > 2sigma(F^2^) is used only for calculating R-factors(gt) etc. and is
not relevant to the choice of reflections for refinement. R-factors based
on F^2^ are statistically about twice as large as those based on F, and R-
factors based on ALL data will be even larger.
;

_refine_ls_structure_factor_coef Fsqd
_refine_ls_matrix_type           full
_refine_ls_weighting_scheme      calc
_refine_ls_weighting_details     
'calc w=1/[\s^2^(Fo^2^)+(0.0305P)^2^+3.1871P] where P=(Fo^2^+2Fc^2^)/3'
_atom_sites_solution_primary     direct
_atom_sites_solution_secondary   difmap
_atom_sites_solution_hydrogens   geom
_refine_ls_hydrogen_treatment    mixed
_refine_ls_extinction_method     none
_refine_ls_extinction_coef       ?
_refine_ls_number_reflns         328
_refine_ls_number_parameters     25
_refine_ls_number_restraints     0
_refine_ls_R_factor_all          0.0269
_refine_ls_R_factor_gt           0.0248
_refine_ls_wR_factor_ref         0.0731
_refine_ls_wR_factor_gt          0.0721
_refine_ls_goodness_of_fit_ref   1.188
_refine_ls_restrained_S_all      1.188
_refine_ls_shift/su_max          0.000
_refine_ls_shift/su_mean         0.000

loop_
_atom_site_label
_atom_site_type_symbol
_atom_site_fract_x
_atom_site_fract_y
_atom_site_fract_z
_atom_site_U_iso_or_equiv
_atom_site_adp_type
_atom_site_occupancy
_atom_site_symmetry_multiplicity
_atom_site_calc_flag
_atom_site_refinement_flags
_atom_site_disorder_assembly
_atom_site_disorder_group
Co1 Co 1.0000 1.0000 0.0000 0.0156(3) Uani 1 6 d S . .
O1 O 0.7918(2) 0.7835(2) 0.05362(7) 0.0271(4) Uani 1 1 d . . .
C2 C 0.6667 0.3333 0.0288(2) 0.0506(14) Uani 1 3 d S . .
D2A D 0.5577 0.2244 0.0147 0.076 Uiso 1 1 d R . .
N1 N 0.7529(11) 0.4196(11) 0.0833 0.036(2) Uani 0.333 2 d SP . .
D1B D 0.7670 0.5353 0.0833 0.043 Uiso 0.333 1 d PR . .
C1 C 0.6667 0.7903(4) 0.0833 0.0224(7) Uani 1 2 d S . .
D1A D 0.6667 0.9059 0.0833 0.027 Uiso 1 2 d SR . .

loop_
_atom_site_aniso_label
_atom_site_aniso_U_11
_atom_site_aniso_U_22
_atom_site_aniso_U_33
_atom_site_aniso_U_23
_atom_site_aniso_U_13
_atom_site_aniso_U_12
Co1 0.0167(3) 0.0167(3) 0.0136(4) 0.000 0.000 0.00833(15)
O1 0.0267(9) 0.0266(9) 0.0281(8) 0.0064(6) 0.0108(7) 0.0135(7)
C2 0.061(2) 0.061(2) 0.029(3) 0.000 0.000 0.0307(11)
N1 0.024(3) 0.024(3) 0.056(6) 0.002(2) -0.002(2) 0.010(4)
C1 0.0224(15) 0.0222(11) 0.0228(15) 0.0001(6) 0.0001(12) 0.0112(7)

_geom_special_details            
;
All esds (except the esd in the dihedral angle between two l.s. planes)
are estimated using the full covariance matrix. The cell esds are taken
into account individually in the estimation of esds in distances, angles
and torsion angles; correlations between esds in cell parameters are only
used when they are defined by crystal symmetry. An approximate (isotropic)
treatment of cell esds is used for estimating esds involving l.s. planes.
;

loop_
_geom_bond_atom_site_label_1
_geom_bond_atom_site_label_2
_geom_bond_distance
_geom_bond_site_symmetry_2
_geom_bond_publ_flag
Co1 O1 2.1135(15) 21_655 ?
Co1 O1 2.1135(15) 20_565 ?
Co1 O1 2.1135(15) 2_765 ?
Co1 O1 2.1135(15) 3_675 ?
Co1 O1 2.1135(15) . ?
Co1 O1 2.1135(15) 19_775 ?
O1 C1 1.246(2) . ?
C2 N1 1.406(6) 3_665 ?
C2 N1 1.406(6) . ?
C2 N1 1.406(6) 2_655 ?
N1 N1 1.226(15) 2_655 ?
N1 N1 1.226(15) 3_665 ?
N1 C2 1.406(6) 16_544 ?
C1 O1 1.246(2) 18_654 ?

loop_
_geom_angle_atom_site_label_1
_geom_angle_atom_site_label_2
_geom_angle_atom_site_label_3
_geom_angle
_geom_angle_site_symmetry_1
_geom_angle_site_symmetry_3
_geom_angle_publ_flag
O1 Co1 O1 91.26(6) 21_655 20_565 ?
O1 Co1 O1 88.74(6) 21_655 2_765 ?
O1 Co1 O1 180.00(11) 20_565 2_765 ?
O1 Co1 O1 180.00(7) 21_655 3_675 ?
O1 Co1 O1 88.74(6) 20_565 3_675 ?
O1 Co1 O1 91.26(6) 2_765 3_675 ?
O1 Co1 O1 88.74(6) 21_655 . ?
O1 Co1 O1 88.74(6) 20_565 . ?
O1 Co1 O1 91.26(6) 2_765 . ?
O1 Co1 O1 91.26(6) 3_675 . ?
O1 Co1 O1 91.26(6) 21_655 19_775 ?
O1 Co1 O1 91.26(6) 20_565 19_775 ?
O1 Co1 O1 88.74(6) 2_765 19_775 ?
O1 Co1 O1 88.74(6) 3_675 19_775 ?
O1 Co1 O1 180.00(7) . 19_775 ?
C1 O1 Co1 126.89(17) . . ?
N1 C2 N1 51.7(5) 3_665 . ?
N1 C2 N1 51.7(5) 3_665 2_655 ?
N1 C2 N1 51.7(5) . 2_655 ?
N1 N1 N1 60.000(1) 2_655 3_665 ?
N1 N1 C2 64.1(3) 2_655 16_544 ?
N1 N1 C2 64.1(3) 3_665 16_544 ?
N1 N1 C2 64.1(3) 2_655 . ?
N1 N1 C2 64.1(3) 3_665 . ?
C2 N1 C2 119.5(7) 16_544 . ?
O1 C1 O1 125.6(3) . 18_654 ?

loop_
_geom_hbond_atom_site_label_D
_geom_hbond_atom_site_label_H
_geom_hbond_atom_site_label_A
_geom_hbond_distance_DH
_geom_hbond_distance_HA
_geom_hbond_distance_DA
_geom_hbond_angle_DHA
_geom_hbond_site_symmetry_A
N1 D1B O1 0.90 2.60 3.2714(17) 132.2 18_654
N1 D1B O1 0.90 2.05 2.919(5) 161.2 .

_diffrn_measured_fraction_theta_max 0.976
_diffrn_reflns_theta_full        27.42
_diffrn_measured_fraction_theta_full 0.976
_refine_diff_density_max         0.238
_refine_diff_density_min         -0.413
_refine_diff_density_rms         0.065
